LAMMPS (7 Aug 2019)
# LAMPPS initialization script for magnetic alignment.
# Part of "MSPIN" package for magnetic interaction.
# Author: Akhlak Mahmood, Yingling Group, NC State University.

# mspin works only with real units right now
units				real
dimension			3
boundary 			p p p

# how often neighbor lists are built as a simulation runs.
neigh_modify    delay 5 every 1 check yes

# qmag atom style adds a new column to the full style atoms
# to specify the MS atoms and their magnetic charges
atom_style		qmag

# The “off” setting for pairwise interaction is currently required for GPU package pair styles.
newton off

# follow standard AMBER FF calculation
bond_style      harmonic
angle_style     harmonic
dihedral_style  harmonic
pair_style      lj/cut/coul/long 8.0

# Modify the parameters of the currently defined pair style.
pair_modify     mix arithmetic

# Define a K−space solver for LAMMPS to use each timestep to compute long−range
kspace_style    pppm 1e-4

# load the lammps data file
read_data			Bare-Fe3O4-MNP-in-HXN.dat
  orthogonal box = (0 0 0) to (58.3861 58.4719 56.9488)
  2 by 2 by 1 MPI processor grid
WARNING: Atom style in data file differs from currently defined atom style (src/read_data.cpp:508)
  reading atoms ...
  17862 atoms
  scanning bonds ...
  6 = max bonds/atom
  scanning angles ...
  33 = max angles/atom
  scanning dihedrals ...
  168 = max dihedrals/atom
  reading bonds ...
  18810 bonds
  reading angles ...
  40939 angles
  reading dihedrals ...
  80796 dihedrals
  6 = max # of 1-2 neighbors
  18 = max # of 1-3 neighbors
  96 = max # of 1-4 neighbors
  52 = max # of special neighbors
  special bonds CPU = 0.00762868 secs
  read_data CPU = 0.307988 secs

# Do AMBER like calculation
special_bonds   amber
  6 = max # of 1-2 neighbors
  18 = max # of 1-3 neighbors
  96 = max # of 1-4 neighbors
  52 = max # of special neighbors
  special bonds CPU = 0.00734067 secs

reset_timestep		0
timestep 			1.0

thermo 				50

# minimize for a bit to get a near 0K structure
print				""

print				"		... MINIMIZATION ..."
		... MINIMIZATION ...
print				"================================="
=================================
dump			1	all custom 50 min.lammpstrj id mol type x y z ix iy iz
minimize 			1.0e-6 1.0e-6 500 1000
WARNING: Using 'neigh_modify every 1 delay 0 check yes' setting during minimization (src/min.cpp:168)
PPPM initialization ...
  using 12-bit tables for long-range coulomb (src/kspace.cpp:323)
  G vector (1/distance) = 0.104969
  grid = 5 5 5
  stencil order = 5
  estimated absolute RMS force accuracy = 0.0339829
  estimated relative force accuracy = 0.000102339
  using double precision FFTW3
  3d grid and FFT values/proc = 640 50
Neighbor list info ...
  update every 1 steps, delay 0 steps, check yes
  max neighbors/atom: 2000, page size: 100000
  master list distance cutoff = 10
  ghost atom cutoff = 10
  binsize = 5, bins = 12 12 12
  1 neighbor lists, perpetual/occasional/extra = 1 0 0
  (1) pair lj/cut/coul/long, perpetual
      attributes: half, newton off
      pair build: half/bin/newtoff
      stencil: half/bin/3d/newtoff
      bin: standard
Per MPI rank memory allocation (min/avg/max) = 151.3 | 151.3 | 151.3 Mbytes
Step Temp E_pair E_mol TotEng Press 
       0            0   -5336.7877    104310.91    98974.123    -763.9885 
      50            0   -5411.0325    91630.306    86219.274   -1615.5523 
     100            0    -5151.598    90058.884    84907.286   -2146.0556 
     150            0   -5214.1767    89574.538    84360.362   -2507.1931 
     200            0   -5274.3682    89319.246    84044.878   -2529.2068 
     250            0   -5339.0082    89158.816    83819.808   -2361.8597 
     300            0   -5418.6053     89068.63    83650.025   -2319.8706 
     350            0   -5512.8711    89030.279    83517.408   -2279.8923 
     400            0   -5586.9411    88987.977    83401.036   -2288.2116 
     450            0   -5660.5602    88958.662    83298.101   -2211.6307 
     500            0   -5738.1636    88943.602    83205.438   -2088.2659 
Loop time of 44.3367 on 4 procs for 500 steps with 17862 atoms

99.8% CPU use with 4 MPI tasks x no OpenMP threads

Minimization stats:
  Stopping criterion = max force evaluations
  Energy initial, next-to-last, final = 
         98974.1233807      83206.3370562      83205.4382423
  Force two-norm initial, final = 2895.51 43.1985
  Force max component initial, final = 83.1751 4.53105
  Final line search alpha, max atom move = 0.00678556 0.0307457
  Iterations, force evaluations = 500 1000

MPI task timing breakdown:
Section |  min time  |  avg time  |  max time  |%varavg| %total
---------------------------------------------------------------
Pair    | 34.711     | 35.267     | 36.254     |   9.9 | 79.54
Bond    | 3.3297     | 3.3837     | 3.4077     |   1.7 |  7.63
Kspace  | 2.9197     | 3.9365     | 4.4557     |  30.1 |  8.88
Neigh   | 1.2728     | 1.2734     | 1.2739     |   0.0 |  2.87
Comm    | 0.15503    | 0.16502    | 0.17894    |   2.5 |  0.37
Output  | 0.13677    | 0.13681    | 0.13692    |   0.0 |  0.31
Modify  | 0          | 0          | 0          |   0.0 |  0.00
Other   |            | 0.1744     |            |       |  0.39

Nlocal:    4465.5 ave 4611 max 4393 min
Histogram: 2 0 1 0 0 0 0 0 0 1
Nghost:    12813 ave 12908 max 12679 min
Histogram: 1 0 0 0 1 0 0 0 1 1
Neighs:    1.11659e+06 ave 1.16629e+06 max 1.08901e+06 min
Histogram: 1 1 0 1 0 0 0 0 0 1

Total # of neighbors = 4466341
Ave neighs/atom = 250.047
Ave special neighs/atom = 12.5705
Neighbor list builds = 16
Dangerous builds = 0
undump			1

# Harmonic restraints on the NP core
group 	feo     	molecule 1
1622 atoms in group feo
fix 	restraint 	feo spring/self 10.0

# NVT heating 1
print				""

print				"		... HEATING ..."
		... HEATING ...
print				"================================"
================================
reset_timestep		0
timestep 			1.0

fix		1			all nvt temp 1 300 100
dump			1	all custom 50 heat.lammpstrj id mol type x y z ix iy iz
run		900
PPPM initialization ...
  using 12-bit tables for long-range coulomb (src/kspace.cpp:323)
  G vector (1/distance) = 0.104969
  grid = 5 5 5
  stencil order = 5
  estimated absolute RMS force accuracy = 0.0339829
  estimated relative force accuracy = 0.000102339
  using double precision FFTW3
  3d grid and FFT values/proc = 640 50
Per MPI rank memory allocation (min/avg/max) = 149.8 | 149.8 | 149.8 Mbytes
Step Temp E_pair E_mol TotEng Press 
       0            0   -5738.1636    88943.602    83205.438   -2088.2659 
      50    1.1645979   -5763.6043     88909.97    83208.369   -2156.3572 
     100    1.7912916   -5789.1793    88912.103    83218.293   -2270.3027 
     150    2.2409103   -5784.6265    88895.527    83230.207   -2248.4081 
     200    2.4417666   -5789.4768    88905.718    83246.242   -2215.0449 
     250    2.9696611   -5788.7004    88896.372    83265.777   -2166.6997 
     300     3.433403   -5801.4721     88908.52    83289.843   -2134.4226 
     350    4.1107175   -5809.0927    88908.134    83317.897   -2058.6938 
     400     4.754674   -5811.5767    88915.923    83357.486   -1966.4975 
     450    5.6074943    -5815.031    88918.693    83402.207   -1894.9026 
     500    6.4469364   -5814.5542     88926.65    83455.332   -1795.2334 
     550    7.2975083   -5804.8945    88932.754     83516.38   -1646.0901 
     600    8.2574085   -5799.0481    88947.586    83588.164   -1559.2005 
     650    9.3189361   -5798.9631    88973.777    83670.957   -1431.2362 
     700    10.411397   -5786.3899    88993.464    83761.379   -1273.2546 
     750    11.653229   -5776.3544      89022.5    83866.567   -1190.9155 
     800    13.390711    -5767.749    89041.669    83986.845   -1046.4041 
     850    15.027291   -5749.9126    89075.903    84126.047   -920.44356 
     900     16.76076   -5700.3814    89090.656    84282.622   -698.42109 
Loop time of 28.3709 on 4 procs for 900 steps with 17862 atoms

Performance: 2.741 ns/day, 8.756 hours/ns, 31.723 timesteps/s
99.8% CPU use with 4 MPI tasks x no OpenMP threads

MPI task timing breakdown:
Section |  min time  |  avg time  |  max time  |%varavg| %total
---------------------------------------------------------------
Pair    | 20.154     | 21.141     | 22.035     |  14.8 | 74.52
Bond    | 2.5885     | 2.6196     | 2.6586     |   1.7 |  9.23
Kspace  | 2.4863     | 3.3681     | 4.3253     |  36.1 | 11.87
Neigh   | 0.61895    | 0.61915    | 0.61933    |   0.0 |  2.18
Comm    | 0.12506    | 0.13783    | 0.15467    |   3.4 |  0.49
Output  | 0.27402    | 0.27459    | 0.27627    |   0.2 |  0.97
Modify  | 0.11722    | 0.17466    | 0.21921    |   8.8 |  0.62
Other   |            | 0.03608    |            |       |  0.13

Nlocal:    4465.5 ave 4652 max 4356 min
Histogram: 2 0 0 0 1 0 0 0 0 1
Nghost:    12868.5 ave 12987 max 12709 min
Histogram: 1 0 0 1 0 0 0 0 1 1
Neighs:    1.12741e+06 ave 1.19328e+06 max 1.08355e+06 min
Histogram: 2 0 0 0 0 1 0 0 0 1

Total # of neighbors = 4509655
Ave neighs/atom = 252.472
Ave special neighs/atom = 12.5705
Neighbor list builds = 8
Dangerous builds = 0
undump			1
unfix 	1

print				""

print				"	... NVT EQUILIBRATION ..."
	... NVT EQUILIBRATION ...
print				"================================"
================================
reset_timestep		0
timestep 			1.0

fix		1			all nvt temp 300 300 100
dump			1	all custom 50 eq1.lammpstrj id mol type x y z ix iy iz
restart 1000		restart.eq1
run		1000
PPPM initialization ...
  using 12-bit tables for long-range coulomb (src/kspace.cpp:323)
  G vector (1/distance) = 0.104969
  grid = 5 5 5
  stencil order = 5
  estimated absolute RMS force accuracy = 0.0339829
  estimated relative force accuracy = 0.000102339
  using double precision FFTW3
  3d grid and FFT values/proc = 640 50
Per MPI rank memory allocation (min/avg/max) = 149.8 | 149.9 | 150.2 Mbytes
Step Temp E_pair E_mol TotEng Press 
       0     16.76076   -5700.3814    89090.656    84282.622   -698.42109 
      50    17.114766   -5679.8011    89115.527    84346.921   -618.64614 
     100     18.05657   -5646.7153     89132.45    84447.071   -516.75938 
     150     19.44505   -5630.3734    89162.883    84567.769   -452.55162 
     200     21.26434   -5617.3856    89190.905    84705.638   -460.32381 
     250    22.955961    -5581.378     89226.66    84867.463   -382.13721 
     300    24.523315   -5544.5683    89289.962    85051.021   -295.06183 
     350    26.687984   -5506.6135    89342.985    85257.247   -241.05056 
     400    28.966286   -5460.3501    89400.002    85481.824   -33.270279 
     450    31.401684    -5413.704     89477.54     85735.67    73.815197 
     500    34.378502   -5315.1747     89498.71    86013.855     386.9278 
     550    37.926991   -5272.3495    89579.374    86326.267    423.67403 
     600    41.481462   -5211.7834    89674.164    86670.864    536.87602 
     650    46.261631    -5198.163     89793.33    87058.148     512.1041 
     700    51.280585   -5103.7898    89869.998    87496.399     784.5539 
     750    55.563499   -4990.0009    90006.177     87974.39    1073.0906 
     800    61.211486    -4875.183    90117.801    88501.533    1425.3669 
     850    67.698245   -4807.9008    90289.491    89085.861    1496.5291 
     900    74.629466   -4657.6883    90418.863    89734.466    1973.4445 
     950    83.661686   -4586.6958    90578.693    90446.166    1995.4385 
    1000    92.292549      -4508.6    90830.441    91235.519    2462.1016 
Loop time of 35.2166 on 4 procs for 1000 steps with 17862 atoms

Performance: 2.453 ns/day, 9.782 hours/ns, 28.396 timesteps/s
99.6% CPU use with 4 MPI tasks x no OpenMP threads

MPI task timing breakdown:
Section |  min time  |  avg time  |  max time  |%varavg| %total
---------------------------------------------------------------
Pair    | 22.705     | 24.541     | 26.065     |  26.9 | 69.69
Bond    | 2.8842     | 2.9713     | 3.0279     |   3.1 |  8.44
Kspace  | 3.0446     | 4.5666     | 6.429      |  62.1 | 12.97
Neigh   | 2.3372     | 2.3382     | 2.3391     |   0.1 |  6.64
Comm    | 0.16856    | 0.18487    | 0.20723    |   3.6 |  0.52
Output  | 0.34848    | 0.34857    | 0.34882    |   0.0 |  0.99
Modify  | 0.16527    | 0.22658    | 0.29515    |  11.2 |  0.64
Other   |            | 0.03915    |            |       |  0.11

Nlocal:    4465.5 ave 4672 max 4184 min
Histogram: 1 0 0 0 0 1 0 1 0 1
Nghost:    12949.8 ave 13086 max 12852 min
Histogram: 1 1 0 0 1 0 0 0 0 1
Neighs:    1.12717e+06 ave 1.21436e+06 max 1.01898e+06 min
Histogram: 1 0 0 0 1 0 0 1 0 1

Total # of neighbors = 4508683
Ave neighs/atom = 252.418
Ave special neighs/atom = 12.5705
Neighbor list builds = 28
Dangerous builds = 0
undump			1
unfix	1

unfix 	restraint
Total wall time: 0:01:48
