LAMMPS (7 Aug 2019)
## Production Simulation - Magnetic Interaction

read_restart		        restart.eq1.1000
  restoring atom style qmag from restart
  orthogonal box = (0 0 0) to (58.3861 58.4719 56.9488)
  2 by 2 by 1 MPI processor grid
  restoring pair style lj/cut/coul/long from restart
  restoring bond style harmonic from restart
  restoring angle style harmonic from restart
  restoring dihedral style harmonic from restart
  17862 atoms
  18810 bonds
  40939 angles
  80796 dihedrals
  6 = max # of 1-2 neighbors
  18 = max # of 1-3 neighbors
  96 = max # of 1-4 neighbors
  52 = max # of special neighbors
  special bonds CPU = 0.00783086 secs
  read_restart CPU = 0.0859656 secs
reset_timestep				0
timestep 					1.0
# Useful for visualization in VMD
dump			1	   		all custom 1000 ./md.lammpstrj id mol type x y z ix iy iz

restart 		5000	restart.md
thermo 			100

# Impose AMBER like calculation
neigh_modify    delay 5 every 1 check yes
pair_modify     mix arithmetic
kspace_style	pppm 1e-4
newton			off
pair_style      lj/cut/coul/long 8.0
special_bonds   amber


# Define the RIGID and non-rigid groups
group 	feo     	molecule 1
1622 atoms in group feo
group 			ligs		subtract all feo
16240 atoms in group ligs

# Do not compute bonded interactions inside the rigid bodies, recompute the special nonbonded weights
delete_bonds    feo 		multi remove special
PPPM initialization ...
  using 12-bit tables for long-range coulomb (src/kspace.cpp:323)
  G vector (1/distance) = 0.104969
  grid = 5 5 5
  stencil order = 5
  estimated absolute RMS force accuracy = 0.0339829
  estimated relative force accuracy = 0.000102339
  using double precision FFTW3
  3d grid and FFT values/proc = 640 50
Unused restart file global fix info:
  fix style: nvt, fix ID: 1
Unused restart file peratom fix info:
  fix style: spring/self, fix ID: restraint
Neighbor list info ...
  update every 1 steps, delay 5 steps, check yes
  max neighbors/atom: 2000, page size: 100000
  master list distance cutoff = 10
  ghost atom cutoff = 10
  binsize = 5, bins = 12 12 12
  1 neighbor lists, perpetual/occasional/extra = 1 0 0
  (1) pair lj/cut/coul/long, perpetual
      attributes: half, newton off
      pair build: half/bin/newtoff
      stencil: half/bin/3d/newtoff
      bin: standard
  15428 total bonds, 15428 turned on, 0 turned off
  29232 total angles, 29232 turned on, 0 turned off
  41412 total dihedrals, 41412 turned on, 0 turned off
  0 total impropers, 0 turned on, 0 turned off
  4 = max # of 1-2 neighbors
  6 = max # of 1-3 neighbors
  12 = max # of 1-4 neighbors
  52 = max # of special neighbors
  special bonds CPU = 0.00450253 secs

fix				fligs		ligs nvt temp 300 300 100

# Apply a 1 T uniform external magnetic field along the +Z direction for demonstration purposes
fix				mspin      	feo rigid/mspin molecule temp 300.0 300.0 10.0 bfield 0.0 0.0 1.0 uniform alpha 1.0 beta 5.0
1 rigid bodies with 1622 atoms
	uniform external B field 0.000000 0.000000 0.000231 applied
	dipole moment scaling factor beta 5.000000
fix_modify 		mspin		energy yes

compute			engy		feo mspin mspin
thermo_style 	custom 		step ecoul evdwl pe ke etotal temp c_engy[1] c_engy[2]

fix 			com 		all recenter INIT INIT INIT

run				10000
PPPM initialization ...
  using 12-bit tables for long-range coulomb (src/kspace.cpp:323)
  G vector (1/distance) = 0.104969
  grid = 5 5 5
  stencil order = 5
  estimated absolute RMS force accuracy = 0.0339829
  estimated relative force accuracy = 0.000102339
  using double precision FFTW3
  3d grid and FFT values/proc = 640 50
	Dipole 0: qm = 0.126200 Ke/fs A	d = 28.661651 A	mu = 18.085502 Ke/fs A^2
Per MPI rank memory allocation (min/avg/max) = 151.4 | 151.8 | 152.2 Mbytes
Step E_coul E_vdwl PotEng KinEng TotEng Temp c_engy[1] c_engy[2] 
       0    115.51958     73965.24     78554.14    4897.1327    83451.273    101.15673            0 3.011112e-311 
     100    116.57634    74153.837    78966.528    5221.9027    84188.431    107.86529            0    3.7694158 
     200    118.90853    74260.748    79405.312    5906.5647    85311.876    122.00788            0     3.768512 
     300    121.53687    74468.748    80055.663    6626.9637    86682.627    136.88868            0    3.7675998 
     400    122.26172    74614.524    80722.723    7561.4039    88284.126    156.19077            0    3.7664399 
     500    122.74188    74856.879    81501.859    8590.3356    90092.195    177.44471            0    3.7658856 
     600    119.87144    74959.539     82218.84    9863.3966    92082.237    203.74147            0    3.7654507 
     700    119.66857    75183.601     83038.72    11162.445    94201.165    230.57502            0    3.7650243 
     800    118.74319    75337.203    83982.057    12351.901    96333.958     255.1448            0    3.7645353 
     900    121.15759    75536.026    84909.889    13436.647    98346.536    277.55167            0    3.7638665 
    1000    122.75013    75747.111    85826.195    14211.111    100037.31    293.54923            0    3.7628032 
    1100    117.78786    75623.366    86316.685    14842.663    101159.35    306.59478            0    3.7618214 
    1200    118.86381    75470.975    86529.318    14986.742    101516.06    309.57091            0    3.7615929 
    1300    120.66418    75540.255    86821.376    14471.957    101293.33    298.93735            0    3.7616276 
    1400    122.59121    75449.692    86904.885     14283.65    101188.54    295.04763            0    3.7622235 
    1500    117.59138    75331.799    86960.455    14539.558    101500.01    300.33375            0    3.7629065 
    1600    122.42344    75259.251    87208.157    14687.131    101895.29    303.38207            0     3.763636 
    1700    117.97412    75312.971     87486.04    14580.142    102066.18    301.17207            0    3.7640744 
    1800    118.80963    75231.379    87500.475    14539.855    102040.33    300.33989            0    3.7640904 
    1900    120.80372     75151.66    87666.324    14386.514    102052.84    297.17242            0    3.7642945 
    2000    116.58185     75181.22    87703.292    14502.786    102206.08    299.57416            0    3.7646696 
    2100    121.95641    75138.254    87979.364    14418.803    102398.17    297.83939            0    3.7657881 
    2200    117.29612    75136.552    87922.087    14602.761    102524.85    301.63929            0    3.7669047 
    2300    116.76813    75045.881    87942.184    14598.437    102540.62    301.54998            0    3.7681741 
    2400    118.34024     75053.22    88078.906    14446.924    102525.83    298.42027            0    3.7689852 
    2500     118.7615    75009.748    88216.779    14451.407    102668.19    298.51288            0    3.7697013 
    2600    120.79489    74907.237    88217.715    14624.011    102841.73    302.07824            0    3.7707105 
    2700    122.58236     74952.64     88449.42    14505.046    102954.47    299.62086            0    3.7715745 
    2800    122.99824    74912.887    88512.257    14495.548     103007.8    299.42465            0    3.7720871 
    2900    121.33422    74884.936    88500.681    14585.024    103085.71    301.27291            0    3.7730274 
    3000    120.55212    74897.944    88524.355    14558.975    103083.33    300.73483            0    3.7739196 
    3100    120.37401    74806.641    88657.978    14432.149    103090.13    298.11506            0    3.7749073 
    3200    117.20641    74808.712    88634.743    14561.215    103195.96    300.78111            0    3.7763657 
    3300    117.15418    74813.684    88729.747    14558.421    103288.17    300.72339            0    3.7779285 
    3400    119.44495     74755.51    88827.033    14445.369     103272.4    298.38815            0    3.7794152 
    3500    119.37586    74717.237    88739.411     14489.51    103228.92    299.29993            0     3.780636 
    3600    118.16327    74639.457    88860.801    14446.423    103307.22    298.40992            0    3.7817097 
    3700    117.57364    74704.171    88830.448     14595.99    103426.44    301.49943            0    3.7826478 
    3800     118.5403    74722.749    88892.591    14568.262    103460.85    300.92666            0    3.7832887 
    3900    120.23492    74688.912    88779.914    14622.658    103402.57     302.0503            0    3.7836601 
    4000    118.81215    74657.607    88899.428    14406.262    103305.69    297.58034            0    3.7841652 
    4100    117.82984    74656.888    88867.462    14518.857    103386.32    299.90615            0    3.7845087 
    4200    119.11219    74716.333     89171.97    14452.163    103624.13    298.52848            0    3.7843653 
    4300    119.64192    74613.941    89182.138    14616.545    103798.68    301.92402            0    3.7839139 
    4400    115.96633    74648.718    89106.471    14627.261    103733.73    302.14537            0    3.7834514 
    4500    122.45314    74655.998    89158.852    14415.845     103574.7    297.77829            0    3.7832618 
    4600     119.2704    74564.354    89084.654    14430.204    103514.86    298.07489            0    3.7829364 
    4700    116.75669    74522.509    89219.588     14455.76    103675.35    298.60278            0    3.7824448 
    4800    116.71102    74624.566    89349.049    14526.838    103875.89    300.07101            0    3.7818206 
    4900    119.69496    74587.721    89289.948    14651.003    103940.95     302.6358            0     3.780842 
    5000    123.05042    74520.602    89155.404    14670.727    103826.13    303.04322            0    3.7798026 
    5100    116.74905    74509.221    89307.091    14272.764    103579.85    294.82276            0    3.7788502 
    5200    118.20434    74431.615    89174.331    14361.763    103536.09    296.66116            0    3.7780326 
    5300    116.31397    74527.791    89284.292    14457.582    103741.87    298.64043            0    3.7771952 
    5400    119.69841    74540.838    89415.815    14579.212    103995.03    301.15285            0    3.7763321 
    5500    118.72962    74570.038     89472.55    14612.314    104084.86    301.83661            0    3.7755321 
    5600    117.18975    74517.051    89389.143     14573.73    103962.87    301.03963            0    3.7744969 
    5700    119.00991    74477.313    89298.528    14499.671     103798.2    299.50983            0    3.7730764 
    5800    116.87746     74537.83    89262.875    14443.094    103705.97    298.34115            0    3.7717987 
    5900    116.98398    74432.778    89361.327    14451.357    103812.68    298.51185            0    3.7709558 
    6000    119.12907    74508.566    89446.579    14590.865    104037.44    301.39357            0    3.7698453 
    6100    117.69088    74440.102    89549.568    14633.371    104182.94    302.27159            0    3.7684948 
    6200    118.87976    74508.732    89567.825    14569.438    104137.26    300.95096            0    3.7671329 
    6300    118.79755    74450.251    89327.225    14596.954    103924.18    301.51933            0    3.7656495 
    6400    119.66307    74447.467    89334.584    14417.281    103751.87    297.80795            0    3.7639922 
    6500    119.41524     74323.76    89303.113    14439.532    103742.65    298.26759            0    3.7624573 
    6600    114.32598    74421.082    89409.751    14533.876    103943.63    300.21638            0    3.7612601 
    6700    116.65259    74457.408    89595.625    14569.249    104164.87    300.94705            0    3.7602897 
    6800    117.53338    74460.371    89594.243    14592.172    104186.41    301.42056            0     3.759595 
    6900    124.27826    74387.558    89425.298     14605.96    104031.26    301.70537            0    3.7590963 
    7000    117.13408    74379.473    89406.296    14408.324    103814.62    297.62294            0    3.7583822 
    7100    120.83061    74427.327    89411.378    14377.434    103788.81    296.98485            0    3.7578048 
    7200    120.64445    74396.188    89514.152    14512.227    104026.38    299.76919            0     3.756988 
    7300    120.63482    74385.881     89691.02    14535.194    104226.21    300.24361            0    3.7561334 
    7400    121.14951    74389.052    89735.305    14498.119    104233.42    299.47776            0    3.7552315 
    7500    120.83582    74426.635    89532.016     14561.85    104093.87    300.79422            0    3.7538047 
    7600    118.85958    74393.316    89439.187    14521.985    103961.17    299.97074            0    3.7527472 
    7700    118.43067     74415.96    89648.319    14351.079     103999.4    296.44046            0    3.7518752 
    7800    117.09043     74457.88    89470.563    14694.539     104165.1     303.5351            0    3.7504582 
    7900    116.97968    74430.324    89603.595    14716.572    104320.17    303.99021            0    3.7490066 
    8000     117.5269    74422.593    89743.584    14600.307    104343.89    301.58859            0    3.7479445 
    8100     115.3348    74416.969    89741.443     14448.84    104190.28    298.45984            0    3.7469823 
    8200    118.26881    74325.777    89641.781    14393.741    104035.52     297.3217            0    3.7461885 
    8300     116.1433    74320.211    89597.777    14451.646    104049.42    298.51781            0     3.745569 
    8400    117.03997    74405.155     89665.18    14563.287    104228.47     300.8239            0    3.7451029 
    8500    118.68139    74405.126    89781.033    14650.196    104431.23    302.61911            0    3.7449123 
    8600    118.56581    74376.354    89864.474    14586.285    104450.76    301.29896            0     3.744862 
    8700    119.40891    74335.629    89665.193    14571.667    104236.86    300.99699            0    3.7447447 
    8800    121.96443     74329.35    89589.434     14416.34    104005.77    297.78853            0    3.7448834 
    8900    119.05203    74315.382    89635.909    14357.167    103993.08    296.56622            0    3.7451217 
    9000    119.71515    74395.586     89782.27    14472.938    104255.21    298.95763            0    3.7452956 
    9100    116.68918    74310.606    89858.418    14662.432    104520.85    302.87187            0    3.7455665 
    9200    118.92829    74309.055    89794.385    14677.237    104471.62    303.17769            0    3.7460093 
    9300    116.32982     74323.73    89629.101    14511.782    104140.88       299.76            0    3.7463324 
    9400     121.3091    74310.679    89458.919    14475.505    103934.42    299.01066            0    3.7466112 
    9500    119.04611    74390.555    89563.778    14428.681    103992.46    298.04344            0    3.7471954 
    9600    117.36484    74279.444     89615.96    14650.718    104266.68     302.6299            0    3.7480305 
    9700    116.57266    74272.198    89870.699    14600.348    104471.05    301.58944            0    3.7486908 
    9800    120.57941     74328.65    89772.653    14655.791    104428.44     302.7347            0    3.7491287 
    9900    120.06046    74302.483    89707.838     14506.54    104214.38    299.65173            0     3.749639 
   10000    116.41521    74216.343    89514.174    14487.872    104002.05    299.26612            0     3.750194 
Loop time of 338.975 on 4 procs for 10000 steps with 17862 atoms

Performance: 2.549 ns/day, 9.416 hours/ns, 29.501 timesteps/s
99.8% CPU use with 4 MPI tasks x no OpenMP threads

MPI task timing breakdown:
Section |  min time  |  avg time  |  max time  |%varavg| %total
---------------------------------------------------------------
Pair    | 240.55     | 244.01     | 247.42     |  15.9 | 71.98
Bond    | 17.256     | 17.359     | 17.432     |   1.5 |  5.12
Kspace  | 31.875     | 35.36      | 38.572     |  40.8 | 10.43
Neigh   | 36.344     | 36.349     | 36.353     |   0.1 | 10.72
Comm    | 2.0513     | 2.0623     | 2.08       |   0.8 |  0.61
Output  | 0.39298    | 0.39392    | 0.39669    |   0.3 |  0.12
Modify  | 2.972      | 3.124      | 3.3388     |   7.6 |  0.92
Other   |            | 0.3162     |            |       |  0.09

Nlocal:    4465.5 ave 4537 max 4387 min
Histogram: 1 0 0 0 0 2 0 0 0 1
Nghost:    12800 ave 12856 max 12765 min
Histogram: 2 0 0 0 1 0 0 0 0 1
Neighs:    1.11317e+06 ave 1.14048e+06 max 1.08674e+06 min
Histogram: 1 0 0 0 1 1 0 0 0 1

Total # of neighbors = 4452672
Ave neighs/atom = 249.282
Ave special neighs/atom = 9.09193
Neighbor list builds = 481
Dangerous builds = 0
Total wall time: 0:05:39
